64
Lattice="10.861999859992501 0.0 0.0 0.0 10.861999859992501 0.0 0.0 0.0 10.861999859992501" Properties=species:S:1:pos:R:3:forces:R:3 energy=-8324.287843648983 stress="-0.0004994777426685017 0.0 0.0 0.0 -0.0004994777426685017 -0.0 0.0 -0.0 -0.0004994777426685017" free_energy=-8324.287843648983 pbc="T T T"
Si       0.00000000       0.00000000       0.00000000       0.00000000      -0.00000026       0.00000077
Si       0.00000000       2.71549996       2.71549996      -0.00000051      -0.00000051       0.00000129
Si       2.71549996       2.71549996       0.00000000       0.00000026      -0.00000154       0.00000026
Si       2.71549996       0.00000000       2.71549996      -0.00000180       0.00000077       0.00000154
Si       4.07324995       1.35774998       4.07324995      -0.00000077      -0.00000051       0.00000103
Si       1.35774998       1.35774998       1.35774998      -0.00000103      -0.00000026       0.00000129
Si       1.35774998       4.07324995       4.07324995      -0.00000180      -0.00000103       0.00000077
Si       4.07324995       4.07324995       1.35774998       0.00000026      -0.00000154      -0.00000000
Si       0.00000000       0.00000000       5.43099993      -0.00000026       0.00000103      -0.00000051
Si       0.00000000       2.71549996       8.14649989      -0.00000077      -0.00000103      -0.00000206
Si       2.71549996       2.71549996       5.43099993      -0.00000206      -0.00000129      -0.00000026
Si       2.71549996       0.00000000       8.14649989      -0.00000103       0.00000103      -0.00000077
Si       4.07324995       1.35774998       9.50424988      -0.00000103      -0.00000077       0.00000103
Si       1.35774998       1.35774998       6.78874991      -0.00000103      -0.00000000      -0.00000154
Si       1.35774998       4.07324995       9.50424988      -0.00000051      -0.00000051      -0.00000051
Si       4.07324995       4.07324995       6.78874991      -0.00000129      -0.00000000      -0.00000103
Si       0.00000000       5.43099993       0.00000000      -0.00000129       0.00000077       0.00000000
Si       0.00000000       8.14649989       2.71549996      -0.00000026       0.00000129       0.00000077
Si       2.71549996       8.14649989       0.00000000      -0.00000154       0.00000129      -0.00000026
Si       2.71549996       5.43099993       2.71549996      -0.00000129      -0.00000077       0.00000129
Si       4.07324995       6.78874991       4.07324995      -0.00000103       0.00000000       0.00000154
Si       1.35774998       6.78874991       1.35774998      -0.00000154       0.00000077       0.00000026
Si       1.35774998       9.50424988       4.07324995      -0.00000129       0.00000129       0.00000077
Si       4.07324995       9.50424988       1.35774998      -0.00000077       0.00000154      -0.00000103
Si       0.00000000       5.43099993       5.43099993      -0.00000051      -0.00000129      -0.00000026
Si       0.00000000       8.14649989       8.14649989      -0.00000103       0.00000000       0.00000026
Si       2.71549996       8.14649989       5.43099993      -0.00000129       0.00000103      -0.00000051
Si       2.71549996       5.43099993       8.14649989      -0.00000077      -0.00000000      -0.00000103
Si       4.07324995       6.78874991       9.50424988      -0.00000103      -0.00000026      -0.00000000
Si       1.35774998       6.78874991       6.78874991      -0.00000103      -0.00000026      -0.00000077
Si       1.35774998       9.50424988       9.50424988      -0.00000103       0.00000026       0.00000026
Si       4.07324995       9.50424988       6.78874991      -0.00000026       0.00000129      -0.00000129
Si       5.43099993       0.00000000       0.00000000      -0.00000077       0.00000129       0.00000026
Si       5.43099993       2.71549996       2.71549996       0.00000051      -0.00000129       0.00000000
Si       8.14649989       2.71549996       0.00000000       0.00000077      -0.00000051       0.00000077
Si       8.14649989       0.00000000       2.71549996       0.00000129       0.00000051       0.00000154
Si       9.50424988       1.35774998       4.07324995       0.00000103      -0.00000051       0.00000077
Si       6.78874991       1.35774998       1.35774998      -0.00000000      -0.00000026       0.00000154
Si       6.78874991       4.07324995       4.07324995       0.00000103      -0.00000103      -0.00000077
Si       9.50424988       4.07324995       1.35774998       0.00000077      -0.00000026       0.00000154
Si       5.43099993       0.00000000       5.43099993       0.00000077       0.00000026      -0.00000000
Si       5.43099993       2.71549996       8.14649989       0.00000051      -0.00000103      -0.00000026
Si       8.14649989       2.71549996       5.43099993       0.00000231      -0.00000154      -0.00000000
Si       8.14649989       0.00000000       8.14649989       0.00000129       0.00000026      -0.00000206
Si       9.50424988       1.35774998       9.50424988       0.00000051      -0.00000077      -0.00000154
Si       6.78874991       1.35774998       6.78874991       0.00000154      -0.00000180      -0.00000103
Si       6.78874991       4.07324995       9.50424988       0.00000103       0.00000026      -0.00000000
Si       9.50424988       4.07324995       6.78874991       0.00000077      -0.00000077      -0.00000077
Si       5.43099993       5.43099993       0.00000000       0.00000026      -0.00000077       0.00000000
Si       5.43099993       8.14649989       2.71549996       0.00000077       0.00000077       0.00000051
Si       8.14649989       8.14649989       0.00000000       0.00000206       0.00000026       0.00000000
Si       8.14649989       5.43099993       2.71549996       0.00000154      -0.00000051       0.00000051
Si       9.50424988       6.78874991       4.07324995       0.00000051      -0.00000026       0.00000026
Si       6.78874991       6.78874991       1.35774998       0.00000129      -0.00000051       0.00000026
Si       6.78874991       9.50424988       4.07324995       0.00000154       0.00000154       0.00000129
Si       9.50424988       9.50424988       1.35774998       0.00000103       0.00000103       0.00000077
Si       5.43099993       5.43099993       5.43099993       0.00000000       0.00000000      -0.00000000
Si       5.43099993       8.14649989       8.14649989      -0.00000000       0.00000051      -0.00000103
Si       8.14649989       8.14649989       5.43099993       0.00000103       0.00000180       0.00000026
Si       8.14649989       5.43099993       8.14649989       0.00000206      -0.00000000      -0.00000051
Si       9.50424988       6.78874991       9.50424988       0.00000077      -0.00000026      -0.00000077
Si       6.78874991       6.78874991       6.78874991       0.00000180       0.00000026      -0.00000103
Si       6.78874991       9.50424988       9.50424988       0.00000129       0.00000180      -0.00000051
Si       9.50424988       9.50424988       6.78874991      -0.00000051       0.00000154      -0.00000103
64
Lattice="10.861999859992501 0.0 0.0 0.0 10.861999859992501 0.0 0.0 0.0 10.861999859992501" Properties=species:S:1:pos:R:3:forces:R:3 energy=-8318.84045970729 stress="-0.002748045742291959 0.0019593483508356297 0.0029876848798590155 0.0019593483508356297 -0.0033016947842572286 0.003752510173320159 0.0029876848798590155 0.003752510173320159 -0.0049387698121578505" free_energy=-8318.84045970729 pbc="T T T"
Si       0.08583679      -0.06414677      -0.05921422      -1.23918148       0.41891935       0.59148228
Si      -0.14392989       2.56470026       2.54826077       0.77780550       0.76927329       1.63183367
Si       2.87514096       2.60875631       0.09204821      -2.02201169       1.59001056       0.04900188
Si       2.64353872       0.21550376       2.84463692       0.22511242      -1.16135059      -0.45403651
Si       4.14429537       1.34126748       4.17979426      -0.86278509       0.37465910       0.61885990
Si       1.33368396       1.40048711       1.33093129       0.40675546      -0.79152774      -0.55809059
Si       1.25697049       3.95082015       3.99201247      -0.45760494       0.97692998      -0.87691176
Si       4.09241600       4.08717573       1.33196687      -0.70258711      -0.39953015       1.66049453
Si       0.20052777      -0.03411715       5.44612479      -0.12687263      -0.03114557       0.74324113
Si       0.03285737       2.75537287       8.31539993       0.85681319      -0.72182333      -0.28781932
Si       2.62274694       2.77934783       5.38257572       1.83145000      -0.11825275       1.03882595
Si       2.77351047      -0.00586490       8.25783610      -0.75340933      -0.19882109      -1.14250620
Si       3.96975802       1.39521326       9.47338577       0.85298816      -1.59878214       1.90097675
Si       1.50642714       1.40945992       6.87184001      -1.03699173      -0.07726885       0.12125014
Si       1.33369666       4.14328053       9.74257166       1.09716685      -0.50616948      -0.70281542
Si       4.13297894       4.08540058       6.93605216      -1.78369510       1.27713430      -2.29837468
Si      -0.05592001       5.50033381       0.13929118       0.95307889       0.09122840      -0.57068180
Si       0.00682151       8.23228139       2.70232575      -0.76007697       0.22604213       0.12634092
Si       2.60725553       8.19200156      -0.07552199       1.90178304      -0.76783142       1.26964237
Si       2.59159415       5.49430058       2.67600368       0.12907426      -0.89815627      -0.09414557
Si       3.90883801       6.78649472       4.09001873       1.13519964      -0.13912831       0.43703714
Si       1.27630495       6.91607476       1.34060999       0.48400940      -0.23146716       0.10701266
Si       1.46090302       9.45177204       4.04834131       0.16569192       0.09411369       0.62652873
Si       3.91137622       9.64279998       1.41734912       0.30826318      -1.11224560      -0.09262605
Si      -0.09236007       5.45297627       5.28978043       0.68583303      -0.58278938       0.87731156
Si       0.02084575       8.17207121       8.19160953      -0.30123019      -0.08837884      -0.02366263
Si       2.72673439       8.14073758       5.62743794       0.41353340       0.86704335      -0.66123451
Si       2.67879154       5.55303389       8.20895937      -0.60629646      -1.06193374      -0.34317105
Si       4.10426696       6.71061811       9.57073904      -1.04691901       2.06437035      -0.47168867
Si       1.21332656       6.82840686       6.78378182       0.71856446      -0.78894686      -0.28460466
Si       1.39028478       9.49075822       9.49600842      -0.40619959       0.27067931      -0.89037405
Si       4.20292263       9.66163600       6.91042092      -0.43562124      -2.05403478      -0.05966811
Si       5.37002469       0.02881713       0.08681746       0.08690509      -0.00380266      -1.11827021
Si       5.34870838       2.59297927       2.71720144       0.50357292       1.70420071       0.23691070
Si       8.12776190       2.74474367      -0.07477249       0.12937097      -0.88017783       0.20210208
Si       8.21458067       0.13664393       2.71770736      -0.18737968      -0.57340357       0.38755266
Si       9.66299659       1.32588841       4.19668170      -1.12694074       0.03644770      -0.46897590
Si       6.70139838       1.34779601       1.41421180       1.26429884       0.51047839      -0.84806167
Si       6.87653817       4.05235917       3.91458942      -1.24074034      -1.00066332       1.03076451
Si       9.58946058       4.09718302       1.35981928      -1.24787746      -1.29124812      -1.11972160
Si       5.53559544      -0.04257118       5.46277983      -0.44624015       0.30773457      -0.47020309
Si       5.18874804       2.65580576       8.21217753       2.95504960       0.15274615      -0.73051931
Si       8.20850050       2.79560897       5.39080845      -0.05722144      -0.57560109       0.69576391
Si       8.21419358      -0.00241191       7.93944936      -0.97124527       0.31655499      -0.20431451
Si       9.49544969       1.17738439       9.33947134       0.48858905       1.61488316       1.74525300
Si       6.69046111       1.40007180       6.78269023       0.92802812       0.87040738       0.00137708
Si       6.72033548       4.02453482       9.39185646       0.08328883       0.10578033       0.42251118
Si       9.66653178       4.01591079       6.86098806      -0.45059868       0.09155416      -1.48254668
Si       5.30084178       5.34267865      -0.04865693       2.42630095       0.01628074       0.27270971
Si       5.37626310       8.06875339       2.68313794      -0.16566080       1.05709981       0.46041978
Si       8.16489963       8.07973069      -0.10539260      -0.35247767       0.40618365       0.07999525
Si       8.14421996       5.26895248       2.55855591       0.13679272       2.19472605       0.63523577
Si       9.46995988       6.80273406       3.96037454      -0.82428796       0.12778897      -0.06704306
Si       6.76324853       6.70697717       1.33337245      -0.25738131       0.20359512      -0.90298326
Si       6.85201297       9.57936315       4.05336357      -0.21129172      -0.96273364      -0.79426545
Si       9.40284381       9.51950351       1.31963632       0.84507764      -0.09299372      -0.10350901
Si       5.46938424       5.35728814       5.32565002      -0.42925287       0.24763734       0.47087852
Si       5.49817345       8.10605375       8.25361775       0.26407698       0.74589785      -0.15238054
Si       8.12898226       8.18385402       5.43529530       0.25448368      -0.66558945       0.02061973
Si       8.23448869       5.29342679       8.05358768      -0.77774534       0.93596640       0.64334040
Si       9.63418254       6.67518406       9.45679255      -1.57098286       0.50352896      -0.10059724
Si       6.77503070       6.70334697       6.80072671       0.39106890       0.47095514      -0.44092954
Si       6.89571321       9.75798818       9.45978466      -0.75497205      -2.05866893       0.69284571
Si       9.60202863       9.48046700       6.78029896      -0.08624868      -0.20638502      -0.98138596
64
Lattice="10.861999859992501 0.0 0.0 0.0 10.861999859992501 0.0 0.0 0.0 10.861999859992501" Properties=species:S:1:pos:R:3:forces:R:3 energy=-8316.583929441253 stress="0.0009172394575842522 -0.0029381043686382453 -0.0028104804601255216 -0.0029381043686382453 -0.00031860069247420975 -0.002900459906415068 -0.0028104804601255216 -0.002900459906415068 0.0037534283309353586" free_energy=-8316.583929441253 pbc="T T T"
Si      -0.00533381      -0.09243088      -0.05013439       0.21306089      -0.15908161      -0.46780605
Si      -0.19699808       2.49015461       2.58712566       0.05827045       0.04174854      -0.51243449
Si       2.75915624       2.73898149       0.20265377       0.93414606      -0.68044914      -0.20380106
Si       2.59168990       0.30030105       2.93877737       0.56477778      -0.95175888      -0.55562722
Si       4.10197191       1.38232295       4.41131945       0.42646811      -0.19152302      -1.54209805
Si       1.33892785       1.31080087       1.22763433      -0.84224480      -0.16279531       1.25655057
Si       1.05708165       3.96508036       3.74376140       1.64064895       0.26945470       1.76265705
Si       4.01305394       4.07110669       1.56730847       0.53673218       0.95052321      -1.00701600
Si       0.44570206      -0.07580058       5.59220676      -1.20612712       0.59531477      -0.55316847
Si       0.22785521       2.69810011       8.48525276      -0.63431403       0.66899102      -0.67748645
Si       2.78276082       2.85182907       5.49834317      -2.21550725       0.01612982      -0.73087027
Si       2.74931570      -0.03012870       8.20637879       0.97586992       0.29632710      -0.18303272
Si       3.98325516       1.21897677       9.72392761      -0.69686717       1.98285764      -1.69145858
Si       1.53392812       1.47744025       7.00188006       0.07995385       0.16368131      -0.76933397
Si       1.48902056       4.16530324       9.92918160      -0.84625109       0.76690711      -1.96337485
Si       3.90253431       4.32509687       6.73910856       1.44334507      -0.53900015       1.45635871
Si       0.00957052       5.58133362       0.21467685      -0.72602657      -1.03858607      -1.12539679
Si      -0.10581863       8.38454931       2.72044276       0.55296896      -0.60962193       0.71695880
Si       2.75766883       8.16782288       0.03848165      -1.31517480       1.40310525      -0.09769678
Si       2.44783409       5.43970586       2.61695454       0.66074806       0.96044844       0.73596337
Si       3.88489696       6.75668940       4.18689172       0.43880581       0.08553829      -0.38854485
Si       1.25387353       7.06215466       1.35931469       0.26095334      -0.33596991       0.80818797
Si       1.62261662       9.40133684       4.12229666      -0.88641610       0.51043777      -0.08642763
Si       3.76761171       9.64199970       1.49202265       1.82868247       0.24980273       0.20791714
Si      -0.10315297       5.39679035       5.22457248      -0.03755508       0.71682999      -0.61297362
Si      -0.02455757       8.16431558       8.22311343      -0.66530302      -0.89390495      -1.00919424
Si       2.81383784       8.26155377       5.77958584      -0.10505656      -1.46562033      -0.90613749
Si       2.52429072       5.53878667       8.24351430       0.48944471       0.09315261       0.03797391
Si       4.00234089       6.91706749       9.56725143       1.54907423      -1.87147077      -0.64028773
Si       1.14949578       6.75708206       6.73147109       0.74699006       0.49121517       0.13286381
Si       1.37265496       9.50389131       9.37925337       0.19177601      -0.63940405       1.64349259
Si       4.31653180       9.52341700       7.05492664       0.00080681       0.41385685      -0.86680758
Si       5.33090783       0.03886362       0.05027995       1.78896021      -1.70786710       1.77682537
Si       5.32348092       2.68148886       2.76954529      -0.02427533      -1.51317880       0.15602920
Si       8.12110067       2.62289508      -0.15930977      -0.42059365       0.10183985      -0.74502239
Si       8.26915856       0.20892563       2.77689225      -0.45694108      -1.08245706      -0.71868350
Si       9.68788390       1.27286636       4.29931877      -0.12904521      -0.38216723       0.13182560
Si       6.78954304       1.43077310       1.34553446      -0.48700191      -0.19633715       0.32988411
Si       6.81645731       3.88659465       3.87977755       1.33929355       1.86343350       0.98994182
Si       9.47659282       3.91912623       1.16352011      -0.01593493       0.84505630       0.72760111
Si       5.60408082      -0.04921564       5.43715517      -0.22938997      -0.17895804       0.36063399
Si       5.31905793       2.57140723       8.20684983      -1.98556347       0.76631293      -0.44678625
Si       8.27364245       2.79724101       5.45024553      -0.33587323      -0.39594217      -0.54665098
Si       8.16130187       0.04789864       7.65744443       0.66671507      -0.27198055       2.16192778
Si       9.53793288       1.20713442       9.40070492      -0.69441820       0.17930925      -0.50852821
Si       6.72866190       1.59990217       6.74277540       0.46421962      -0.99639118      -0.95614699
Si       6.67401214       3.97647652       9.31444826       1.57853727      -0.10716461       0.50463890
Si       9.80599762       3.95204843       6.73705480      -0.59076829       0.20760758       1.33480569
Si       5.48651709       5.22692249      -0.06451637      -2.27489614       0.45015645      -0.10693321
Si       5.26866321       8.14624242       2.71220688       0.11312828      -0.35921396      -0.40944098
Si       8.12306008       8.06091330      -0.22808359      -0.01614858       0.22826537       0.98838939
Si       8.15421940       5.40355710       2.45740034      -0.91444806      -0.97915090       0.11723073
Si       9.29070356       6.84153681       3.80965640       1.24748331      -0.13892365       1.31277494
Si       6.68761576       6.66187216       1.15051167       0.29740850       1.79993728       0.93655158
Si       6.89125781       9.50695173       3.89332214      -0.45914477      -0.21128477       0.70893567
Si       9.40253898       9.53208878       1.24931044      -0.38759663       0.18054492       0.30692853
Si       5.44657125       5.30709863       5.26519929       0.14763994       0.65075547       0.39726012
Si       5.63904081       8.16863742       8.37353402      -0.23183020      -0.89899368      -0.65181270
Si       8.14682792       8.11652034       5.42535413      -0.17744674       0.07991040      -0.86880918
Si       8.22605856       5.25513435       8.02363040      -0.08948287      -0.10414433      -0.40012999
Si       9.53733659       6.61146921       9.38916577      -0.14407819       0.51621221       0.71698991
Si       6.82054744       6.67339283       6.74254704      -0.34096916       0.37843322       0.26694633
Si       6.92003561       9.74599425       9.50128468       0.10239110      -0.15129862      -0.56687837
Si       9.71157663       9.41761122       6.60374433      -0.75661061       0.29054443       0.53175273
64
Lattice="10.861999859992501 0.0 0.0 0.0 10.861999859992501 0.0 0.0 0.0 10.861999859992501" Properties=species:S:1:pos:R:3:forces:R:3 energy=-8315.547059931536 stress="0.005327150483387218 0.0030253293420821935 0.005856009269742103 0.0030253293420821935 0.00470647593551239 0.00326496847964925 0.005856009269742103 0.00326496847964925 0.007575718483010675" free_energy=-8315.547059931536 pbc="T T T"
Si      -0.10970089      -0.13929670      -0.12192204       0.79192394       0.14974208      -0.30445924
Si      -0.23584057       2.43615019       2.60316325      -0.47689181       0.63404252       0.20672698
Si       2.71148786       2.81212479       0.31858201       0.15607573      -0.81858294      -0.00757267
Si       2.64734773       0.19841519       2.93786983       0.35792944       0.19619703      -0.26467810
Si       4.08811515       1.41424662       4.43924025      -0.48284495      -0.49000933      -0.45013357
Si       1.20655277       1.16228933       1.31537032       0.44816642       0.82250670       0.19390489
Si       1.10323782       4.01582056       3.74845371       0.46053394      -0.99212160       0.92214389
Si       4.01549752       4.20782483       1.71779334       0.72626748      -0.54490778      -1.27684608
Si       0.51067159      -0.01443573       5.69205219      -1.32426340       0.11711452      -0.62277955
Si       0.35417030       2.74165084       8.56389842      -1.61304816       0.36960611      -0.83706351
Si       2.62213579       2.96344451       5.50739074      -0.20396896       0.20313489      -1.11968380
Si       2.86534174      -0.03319736       8.09536806       0.05594361      -0.22081842       1.58494600
Si       3.97162426       1.27098972       9.83342205       0.99033083      -0.03578950      -1.01413025
Si       1.56297328       1.57762099       7.02406635       0.32600457      -0.72280292      -0.26091709
Si       1.55779101       4.29077319       9.80322918      -0.83193159      -1.25442118       0.89441428
Si       3.84546289       4.51212664       6.72432120       0.96172397      -1.88498114       0.92094216
Si      -0.01895470       5.51802631       0.09368451      -0.63492313       0.34494897       0.45181713
Si      -0.16651359       8.47453156       2.88102071       0.62993159      -0.51171355      -0.15173571
Si       2.77365087       8.34952495       0.14963243       0.01501036      -0.93946798      -0.72989042
Si       2.41124263       5.54636768       2.69106447       1.23974224       0.67549951       0.82263860
Si       3.96092084       6.73864226       4.22736689      -0.28579817       0.25640172      -1.23324866
Si       1.26981571       7.16188806       1.52392101      -0.78004339      -0.73892785      -0.91346616
Si       1.65801199       9.43386169       4.22795970      -0.82018371       0.05893714       0.05975475
Si       3.94375599       9.67579574       1.61749526       0.09587927       0.59160312      -0.79052038
Si      -0.11311065       5.44539200       5.07639119       0.13165539      -0.02344075       1.28782521
Si      -0.19795111       7.99604413       8.07957374       0.85175197       0.55973661       0.31318093
Si       2.91796458       8.15533066       5.77849273      -0.35169529      -0.54452571      -0.56624536
Si       2.43133412       5.54488660       8.25146245       1.96223379       1.73366838      -1.12679984
Si       4.10599761       6.88854652       9.49156803      -0.68330383      -0.83392857       0.90003035
Si       1.22060795       6.73430526       6.67307324      -0.42281200       0.24980787      -0.13355955
Si       1.37713913       9.40267987       9.48481844      -0.50776279       0.17010984      -1.33235363
Si       4.44596854       9.37946636       7.06057577      -0.50066321       1.20124048      -0.87602755
Si       5.55612718      -0.20344675       0.24886513      -0.35911961       1.40729897      -0.76088404
Si       5.32814903       2.59841929       2.88302258       0.96141466       0.86621931      -0.37508796
Si       8.02608025       2.47808736      -0.37606813       0.06387392       0.49329082       1.75687953
Si       8.24498346       0.08446359       2.73192559      -0.45939417       0.19890260       0.09250315
Si       9.66558535       1.12602879       4.41567245       0.10834706      -0.05291690      -1.46175134
Si       6.83748812       1.49288475       1.31963744      -0.71744397      -1.07810675       1.08906633
Si       6.92962873       3.98894717       4.01901034      -0.39147977       0.51882625      -0.57599550
Si       9.30311413       3.81586050       1.02756255       0.81049605       1.21157837       1.32561451
Si       5.63705960      -0.08872541       5.45407433      -0.10481565      -0.21753590      -0.28019625
Si       5.20672658       2.65874392       8.05720851      -0.15030129       0.65049733       0.23327953
Si       8.34633330       2.74061827       5.42201584       1.02641575       0.80423310      -0.56340404
Si       8.19632087       0.07866244       7.71300136       0.50533644      -0.18566707       0.89571166
Si       9.50991606       1.29211475       9.39556898       1.09462532      -1.09290448      -1.49025973
Si       6.82880816       1.65596150       6.56772636      -1.65355512      -1.76979315       1.45687601
Si       6.86185893       3.90093950       9.30847472      -2.30044699       0.99991745      -0.89625417
Si       9.86267224       3.92473025       6.77979474      -0.28083157       0.69166635       0.26694787
Si       5.37574470       5.19620251      -0.10003696      -0.09912117       0.76957206       0.16027640
Si       5.16771680       8.17542567       2.69519196       1.11188847      -1.67420853       0.34212384
Si       8.07622044       8.10160745      -0.18435241       0.84400344       0.48076312       0.67476417
Si       7.98964474       5.46394427       2.38330486       0.08860304      -0.54573490       0.02043384
Si       9.29216375       6.82868947       3.83549837       1.04255611      -1.10557564      -0.68043397
Si       6.59337691       6.91954660       1.06730120      -1.05415127      -0.93990893       1.11908833
Si       6.84183481       9.35805867       3.80727324      -0.49833019       1.00459480       0.89936751
Si       9.35240434       9.56145306       1.23157858       0.19708483      -0.65838599       0.59245982
Si       5.45011491       5.37615682       5.28853425       0.67702057       0.15134182       0.57366274
Si       5.77974748       8.07631471       8.37927485      -0.63565306      -0.84543940      -0.74958893
Si       8.12897902       8.04624176       5.26736013      -0.51731830       0.90847719       0.69904618
Si       8.18783829       5.21912798       7.92741476       0.46010071       0.22248321       0.08702336
Si       9.34031432       6.62767991       9.42967691       0.65195309      -0.33488336      -0.03201512
Si       6.82496377       6.72069228       6.70698303      -0.00903254      -0.06003192       0.15680952
Si       6.96179170       9.66802301       9.46472439       0.18897942       0.87923398      -0.33202609
Si       9.69554391       9.39070865       6.45838064      -0.88267437       0.52433715       1.20974955
64
Lattice="10.861999859992501 0.0 0.0 0.0 10.861999859992501 0.0 0.0 0.0 10.861999859992501" Properties=species:S:1:pos:R:3:forces:R:3 energy=-8313.82523798439 stress="0.004462246009869336 0.002002501758750004 0.000323191480550207 0.002002501758750004 0.005873454264430892 -0.0010540449422489705 0.000323191480550207 -0.0010540449422489705 0.0010687354640921617" free_energy=-8313.82523798439 pbc="T T T"
Si      -0.08510388      -0.16791895      -0.23223935       0.33526388       0.15768293       1.12065439
Si      -0.35131476       2.48607057       2.64433703       0.54425112       0.61180968       0.26965421
Si       2.72123592       2.71929712       0.44170420      -0.30015778       0.20252451      -1.06567958
Si       2.74670269       0.10291068       2.89459419      -1.11423872       0.14998967       0.22785296
Si       4.00873816       1.37505329       4.35915775       0.17267606       0.62020408       0.13152735
Si       1.13231534       1.13711873       1.45298845       0.70497643       0.52220982      -0.81711124
Si       1.22071326       3.97327641       3.88312631      -1.76594601       1.32711372      -2.28054305
Si       4.12582374       4.27320490       1.65942845      -0.68558543      -1.08933913       0.35744787
Si       0.34299125       0.07501779       5.69698963      -0.18516956      -0.47640639       0.24470886
Si       0.22357134       2.85281960       8.47124353       0.55837522      -0.39670476      -1.03353282
Si       2.42543652       3.06059234       5.37654319       3.34780617      -1.62225862       2.31478397